5
Properties=species:S:1:pos:R:3:forces:R:3:charge:R:1 energy=-113.61348230555546 free_energy=-113.61348230555546 dipole="-1.9828284410527573e-16 1.1015713561404207e-15 7.564123312164222e-16" pbc="F F F"
C        0.00000000       0.00000000      -0.00000000      -0.00000000      -0.00000000       0.00000000      -0.15568422
H        0.62473386       0.62473386       0.62473386       0.00192360       0.00192360       0.00192360       0.03892106
H       -0.62473386      -0.62473386       0.62473386      -0.00192360      -0.00192360       0.00192360       0.03892106
H        0.62473386      -0.62473386      -0.62473386       0.00192360      -0.00192360      -0.00192360       0.03892106
H       -0.62473386       0.62473386      -0.62473386      -0.00192360       0.00192360      -0.00192360       0.03892106
